LAMMPS data file
# 500 DMS molecules

4 atom types
3 bond types
4 angle types
2 dihedral types

5000 atoms
4500 bonds
7500 angles
6000 dihedrals

-25.85 25.85 xlo xhi
-25.758 25.758 ylo yhi
-25.826 25.826 zlo zhi

Masses

1   32.060  # s4 DMS
2   16.000  # o DMS
3   12.010  # c3 DMS
4    1.008  # h1 DMS

Pair Coeffs

1 0.350 3.564  # s4 DMS
2 0.120 3.029  # o DMS
3 0.078 3.635  # c3 DMS
4 0.024 2.388  # h1 DMS

Bond Coeffs

1 540 1.53  # harmonic DMS o s4
2 240 1.80  # harmonic DMS c3 s4
3 322 1.11  # harmonic DMS c3 h1

Angle Coeffs

1 46.1 111.3  # harmonic DMS h1 c3 s4
2 79.0 106.75  # harmonic DMS c3 s4 o
3 34.0 95.0  # harmonic DMS c3 s4 c3
4 35.5 108.4  # harmonic DMS h1 c3 h1

Dihedral Coeffs

1 0.2  3 0 0.0  # charmm DMS h1 c3 s4 o
2 0.2  3 0 0.0  # charmm DMS h1 c3 s4 c3

Atoms

1 1 1  0.312000   -7.20000   10.48000  -15.24400  # s4 S1 DMS 1
2 1 2 -0.556000   -6.83800   11.46400  -14.15200  # o O1 DMS 1
3 1 3 -0.148000   -6.58000   11.18500  -16.82200  # c3 C1 DMS 1
4 1 4  0.090000   -5.52900   11.45300  -16.70400  # h1 H1 DMS 1
5 1 4  0.090000   -6.72100   10.46300  -17.62800  # h1 H2 DMS 1
6 1 4  0.090000   -7.17100   12.08000  -17.01600  # h1 H3 DMS 1
7 1 3 -0.148000   -5.99100    9.10300  -15.14100  # c3 C2 DMS 1
8 1 4  0.090000   -6.14200    8.41700  -15.97700  # h1 H4 DMS 1
9 1 4  0.090000   -4.98100    9.51500  -15.14000  # h1 H5 DMS 1
10 1 4  0.090000   -6.18500    8.59100  -14.19900  # h1 H6 DMS 1
11 2 1  0.312000  -15.91500    8.04900   17.43800  # s4 S1 DMS 2
12 2 2 -0.556000  -16.97000    8.80500   18.21900  # o O1 DMS 2
13 2 3 -0.148000  -15.56400    9.03300   15.92900  # c3 C1 DMS 2
14 2 4  0.090000  -15.34500   10.06200   16.21700  # h1 H1 DMS 2
15 2 4  0.090000  -14.73200    8.58400   15.38400  # h1 H2 DMS 2
16 2 4  0.090000  -16.46800    9.00200   15.32100  # h1 H3 DMS 2
17 2 3 -0.148000  -14.31100    8.36200   18.27100  # c3 C2 DMS 2
18 2 4  0.090000  -13.50000    7.92600   17.68400  # h1 H4 DMS 2
19 2 4  0.090000  -14.17900    9.43800   18.39700  # h1 H5 DMS 2
20 2 4  0.090000  -14.36800    7.87800   19.24500  # h1 H6 DMS 2
21 3 1  0.312000   16.07600  -10.76200  -14.41400  # s4 S1 DMS 3
22 3 2 -0.556000   16.44400   -9.32100  -14.13100  # o O1 DMS 3
23 3 3 -0.148000   17.01900  -11.79500  -13.22500  # c3 C1 DMS 3
24 3 4  0.090000   16.85600  -11.41600  -12.21500  # h1 H1 DMS 3
25 3 4  0.090000   16.70800  -12.83700  -13.31600  # h1 H2 DMS 3
26 3 4  0.090000   18.07100  -11.69600  -13.49300  # h1 H3 DMS 3
27 3 3 -0.148000   14.42200  -11.04500  -13.67100  # c3 C2 DMS 3
28 3 4  0.090000   14.15700  -12.10100  -13.75400  # h1 H4 DMS 3
29 3 4  0.090000   14.43900  -10.71800  -12.63000  # h1 H5 DMS 3
30 3 4  0.090000   13.71900  -10.43800  -14.24000  # h1 H6 DMS 3
31 4 1  0.312000   -9.31500    4.42500   -8.45400  # s4 S1 DMS 4
32 4 2 -0.556000   -8.41800    5.51400   -9.00500  # o O1 DMS 4
33 4 3 -0.148000  -11.03400    5.06600   -8.52400  # c3 C1 DMS 4
34 4 4  0.090000  -11.23700    5.43300   -9.53100  # h1 H1 DMS 4
35 4 4  0.090000  -11.73200    4.27800   -8.23700  # h1 H2 DMS 4
36 4 4  0.090000  -11.08800    5.88900   -7.81100  # h1 H3 DMS 4
37 4 3 -0.148000   -9.50500    3.17100   -9.77900  # c3 C2 DMS 4
38 4 4  0.090000  -10.23100    2.41600   -9.47000  # h1 H4 DMS 4
39 4 4  0.090000   -9.81500    3.66900  -10.69900  # h1 H5 DMS 4
40 4 4  0.090000   -8.52600    2.71300   -9.91500  # h1 H6 DMS 4
41 5 1  0.312000  -13.77400   17.38000   -9.25700  # s4 S1 DMS 5
42 5 2 -0.556000  -13.32100   18.60800  -10.01800  # o O1 DMS 5
43 5 3 -0.148000  -13.83000   17.84400   -7.48200  # c3 C1 DMS 5
44 5 4  0.090000  -14.41600   18.75700   -7.37100  # h1 H1 DMS 5
45 5 4  0.090000  -14.25400   17.02400   -6.90000  # h1 H2 DMS 5
46 5 4  0.090000  -12.80000   18.02500   -7.17500  # h1 H3 DMS 5
47 5 3 -0.148000  -15.58800   17.24500   -9.49500  # c3 C2 DMS 5
48 5 4  0.090000  -15.98100   16.43400   -8.87800  # h1 H4 DMS 5
49 5 4  0.090000  -16.05200   18.19900   -9.24500  # h1 H5 DMS 5
50 5 4  0.090000  -15.74600   17.02000  -10.55000  # h1 H6 DMS 5
51 6 1  0.312000   -4.50100  -12.81700  -12.76800  # s4 S1 DMS 6
52 6 2 -0.556000   -5.11300  -11.79000  -11.84000  # o O1 DMS 6
53 6 3 -0.148000   -2.93700  -13.37500  -11.98600  # c3 C1 DMS 6
54 6 4  0.090000   -3.14000  -13.67500  -10.95700  # h1 H1 DMS 6
55 6 4  0.090000   -2.50900  -14.19500  -12.56500  # h1 H2 DMS 6
56 6 4  0.090000   -2.26100  -12.51900  -11.99700  # h1 H3 DMS 6
57 6 3 -0.148000   -5.42900  -14.38000  -12.52000  # c3 C2 DMS 6
58 6 4  0.090000   -4.95600  -15.18300  -13.08900  # h1 H4 DMS 6
59 6 4  0.090000   -5.45900  -14.61100  -11.45400  # h1 H5 DMS 6
60 6 4  0.090000   -6.43800  -14.20400  -12.89200  # h1 H6 DMS 6
61 7 1  0.312000   -1.59000   18.77600  -18.89600  # s4 S1 DMS 7
62 7 2 -0.556000   -0.30100   19.26400  -18.26800  # o O1 DMS 7
63 7 3 -0.148000   -2.24400   20.15800  -19.91100  # c3 C1 DMS 7
64 7 4  0.090000   -1.45700   20.51500  -20.57600  # h1 H1 DMS 7
65 7 4  0.090000   -3.11800   19.82100  -20.47100  # h1 H2 DMS 7
66 7 4  0.090000   -2.52800   20.94700  -19.21500  # h1 H3 DMS 7
67 7 3 -0.148000   -1.12100   17.68900  -20.29800  # c3 C2 DMS 7
68 7 4  0.090000   -2.01500   17.39700  -20.85100  # h1 H4 DMS 7
69 7 4  0.090000   -0.41200   18.21800  -20.93600  # h1 H5 DMS 7
70 7 4  0.090000   -0.64700   16.81000  -19.86400  # h1 H6 DMS 7
71 8 1  0.312000   13.29200    1.89000    5.57100  # s4 S1 DMS 8
72 8 2 -0.556000   12.55800    0.63400    5.15200  # o O1 DMS 8
73 8 3 -0.148000   12.01900    3.17900    5.86100  # c3 C1 DMS 8
74 8 4  0.090000   11.25900    2.78400    6.53700  # h1 H1 DMS 8
75 8 4  0.090000   12.48900    4.07500    6.27000  # h1 H2 DMS 8
76 8 4  0.090000   11.57400    3.40100    4.89100  # h1 H3 DMS 8
77 8 3 -0.148000   13.76800    1.66600    7.32900  # c3 C2 DMS 8
78 8 4  0.090000   14.20800    2.59000    7.71200  # h1 H4 DMS 8
79 8 4  0.090000   12.88700    1.37600    7.90300  # h1 H5 DMS 8
80 8 4  0.090000   14.50700    0.86500    7.35100  # h1 H6 DMS 8
81 9 1  0.312000   21.09700  -20.83800   14.01400  # s4 S1 DMS 9
82 9 2 -0.556000   21.25100  -19.44700   14.59400  # o O1 DMS 9
83 9 3 -0.148000   22.42200  -21.87100   14.75200  # c3 C1 DMS 9
84 9 4  0.090000   22.39400  -21.76600   15.83700  # h1 H1 DMS 9
85 9 4  0.090000   22.29000  -22.91100   14.44800  # h1 H2 DMS 9
86 9 4  0.090000   23.36700  -21.48700   14.36600  # h1 H3 DMS 9
87 9 3 -0.148000   19.69700  -21.63000   14.89700  # c3 C2 DMS 9
88 9 4  0.090000   19.61300  -22.67500   14.59000  # h1 H4 DMS 9
89 9 4  0.090000   19.85800  -21.54200   15.97200  # h1 H5 DMS 9
90 9 4  0.090000   18.80000  -21.08400   14.60800  # h1 H6 DMS 9
91 10 1  0.312000    4.71300    1.28700    5.56900  # s4 S1 DMS 10
92 10 2 -0.556000    5.33200    2.05100    6.71900  # o O1 DMS 10
93 10 3 -0.148000    5.14000   -0.48200    5.81400  # c3 C1 DMS 10
94 10 4  0.090000    4.86600   -0.77700    6.82800  # h1 H1 DMS 10
95 10 4  0.090000    4.62600   -1.09100    5.06800  # h1 H2 DMS 10
96 10 4  0.090000    6.21900   -0.56200    5.68200  # h1 H3 DMS 10
97 10 3 -0.148000    2.92300    1.12400    5.94000  # c3 C2 DMS 10
98 10 4  0.090000    2.44900    0.48600    5.19200  # h1 H4 DMS 10
99 10 4  0.090000    2.80400    0.71700    6.94500  # h1 H5 DMS 10
100 10 4  0.090000    2.50400    2.12800    5.89300  # h1 H6 DMS 10
101 11 1  0.312000   10.51600  -16.08200    8.06200  # s4 S1 DMS 11
102 11 2 -0.556000   11.75000  -15.70900    7.26700  # o O1 DMS 11
103 11 3 -0.148000    9.16800  -14.96700    7.50600  # c3 C1 DMS 11
104 11 4  0.090000    9.10300  -15.00300    6.41800  # h1 H1 DMS 11
105 11 4  0.090000    8.22800  -15.26600    7.97300  # h1 H2 DMS 11
106 11 4  0.090000    9.44200  -13.96300    7.82800  # h1 H3 DMS 11
107 11 3 -0.148000    9.84300  -17.61600    7.31400  # c3 C2 DMS 11
108 11 4  0.090000    8.89100  -17.86700    7.78400  # h1 H4 DMS 11
109 11 4  0.090000    9.73100  -17.46800    6.23900  # h1 H5 DMS 11
110 11 4  0.090000   10.57300  -18.40100    7.50700  # h1 H6 DMS 11
111 12 1  0.312000  -10.95700  -17.85000   -7.26200  # s4 S1 DMS 12
112 12 2 -0.556000  -12.27200  -17.19100   -6.90000  # o O1 DMS 12
113 12 3 -0.148000   -9.72900  -16.50300   -7.47600  # c3 C1 DMS 12
114 12 4  0.090000   -9.75000  -15.85800   -6.59600  # h1 H1 DMS 12
115 12 4  0.090000   -8.73700  -16.93200   -7.63300  # h1 H2 DMS 12
116 12 4  0.090000  -10.03500  -15.94000   -8.35700  # h1 H3 DMS 12
117 12 3 -0.148000  -10.25700  -18.52800   -5.70700  # c3 C2 DMS 12
118 12 4  0.090000   -9.25600  -18.92100   -5.89600  # h1 H4 DMS 12
119 12 4  0.090000  -10.24200  -17.74200   -4.95100  # h1 H5 DMS 12
120 12 4  0.090000  -10.92000  -19.33400   -5.39400  # h1 H6 DMS 12
121 13 1  0.312000   -1.16300  -18.89000  -22.84800  # s4 S1 DMS 13
122 13 2 -0.556000   -1.43800  -20.01100  -21.86900  # o O1 DMS 13
123 13 3 -0.148000   -2.70200  -17.89600  -22.96400  # c3 C1 DMS 13
124 13 4  0.090000   -3.02800  -17.62500  -21.95900  # h1 H1 DMS 13
125 13 4  0.090000   -2.52300  -17.01100  -23.57800  # h1 H2 DMS 13
126 13 4  0.090000   -3.44900  -18.53300  -23.43800  # h1 H3 DMS 13
127 13 3 -0.148000   -0.16900  -17.63300  -21.95400  # c3 C2 DMS 13
128 13 4  0.090000   -0.03500  -16.75300  -22.58500  # h1 H4 DMS 13
129 13 4  0.090000   -0.67100  -17.38200  -21.01900  # h1 H5 DMS 13
130 13 4  0.090000    0.79700  -18.09300  -21.74600  # h1 H6 DMS 13
131 14 1  0.312000   -0.93600  -11.90300   -2.59300  # s4 S1 DMS 14
132 14 2 -0.556000    0.17300  -12.39200   -1.68600  # o O1 DMS 14
133 14 3 -0.148000   -2.51200  -12.53300   -1.89300  # c3 C1 DMS 14
134 14 4  0.090000   -2.56400  -12.26800   -0.83600  # h1 H1 DMS 14
135 14 4  0.090000   -3.35300  -12.11900   -2.45100  # h1 H2 DMS 14
136 14 4  0.090000   -2.48900  -13.61700   -2.00300  # h1 H3 DMS 14
137 14 3 -0.148000   -1.21700  -10.13700   -2.18600  # c3 C2 DMS 14
138 14 4  0.090000   -2.08200   -9.76500   -2.73900  # h1 H4 DMS 14
139 14 4  0.090000   -1.35900  -10.03700   -1.10900  # h1 H5 DMS 14
140 14 4  0.090000   -0.32000   -9.60100   -2.49400  # h1 H6 DMS 14
141 15 1  0.312000  -15.78600   14.58500   10.34100  # s4 S1 DMS 15
142 15 2 -0.556000  -15.85100   15.81600   11.22000  # o O1 DMS 15
143 15 3 -0.148000  -14.71300   13.37000   11.20300  # c3 C1 DMS 15
144 15 4  0.090000  -15.06700   13.24700   12.22800  # h1 H1 DMS 15
145 15 4  0.090000  -14.72000   12.42300   10.66100  # h1 H2 DMS 15
146 15 4  0.090000  -13.70800   13.79100   11.20600  # h1 H3 DMS 15
147 15 3 -0.148000  -17.36300   13.67700   10.57800  # c3 C2 DMS 15
148 15 4  0.090000  -17.32300   12.72400   10.04700  # h1 H4 DMS 15
149 15 4  0.090000  -17.53300   13.53200   11.64600  # h1 H5 DMS 15
150 15 4  0.090000  -18.14800   14.30500   10.15800  # h1 H6 DMS 15
151 16 1  0.312000    9.71600    4.41700  -22.83000  # s4 S1 DMS 16
152 16 2 -0.556000    9.39600    3.20500  -21.98100  # o O1 DMS 16
153 16 3 -0.148000    8.50600    5.72000  -22.37500  # c3 C1 DMS 16
154 16 4  0.090000    8.50600    5.84300  -21.29100  # h1 H1 DMS 16
155 16 4  0.090000    8.76100    6.65200  -22.88300  # h1 H2 DMS 16
156 16 4  0.090000    7.53000    5.36800  -22.70900  # h1 H3 DMS 16
157 16 3 -0.148000   11.18400    5.22100  -22.07800  # c3 C2 DMS 16
158 16 4  0.090000   11.39100    6.16200  -22.59200  # h1 H4 DMS 16
159 16 4  0.090000   10.99800    5.37900  -21.01500  # h1 H5 DMS 16
160 16 4  0.090000   12.01700    4.53200  -22.21200  # h1 H6 DMS 16
161 17 1  0.312000    2.39500   14.33600   15.17400  # s4 S1 DMS 17
162 17 2 -0.556000    3.25300   13.15100   14.78400  # o O1 DMS 17
163 17 3 -0.148000    2.63800   15.61700   13.88100  # c3 C1 DMS 17
164 17 4  0.090000    2.47200   15.16900   12.90100  # h1 H1 DMS 17
165 17 4  0.090000    1.95800   16.45200   14.05900  # h1 H2 DMS 17
166 17 4  0.090000    3.67100   15.95300   13.96700  # h1 H3 DMS 17
167 17 3 -0.148000    0.66700   13.91200   14.72800  # c3 C2 DMS 17
168 17 4  0.090000    0.02200   14.77800   14.89100  # h1 H4 DMS 17
169 17 4  0.090000    0.63800   13.58300   13.68800  # h1 H5 DMS 17
170 17 4  0.090000    0.36800   13.09700   15.38500  # h1 H6 DMS 17
171 18 1  0.312000    5.36000   16.65700  -12.85000  # s4 S1 DMS 18
172 18 2 -0.556000    6.70800   16.96900  -13.46600  # o O1 DMS 18
173 18 3 -0.148000    4.08600   17.19800  -14.05600  # c3 C1 DMS 18
174 18 4  0.090000    4.31300   16.76700  -15.03200  # h1 H1 DMS 18
175 18 4  0.090000    3.09700   16.89700  -13.70600  # h1 H2 DMS 18
176 18 4  0.090000    4.14900   18.28500  -14.10700  # h1 H3 DMS 18
177 18 3 -0.148000    5.08700   14.85400  -13.05300  # c3 C2 DMS 18
178 18 4  0.090000    4.08000   14.59400  -12.72000  # h1 H4 DMS 18
179 18 4  0.090000    5.24400   14.58500  -14.09800  # h1 H5 DMS 18
180 18 4  0.090000    5.82600   14.35600  -12.42600  # h1 H6 DMS 18
181 19 1  0.312000    9.42900    8.83600   22.55300  # s4 S1 DMS 19
182 19 2 -0.556000    9.43100    8.35300   23.98800  # o O1 DMS 19
183 19 3 -0.148000   11.17000    9.23200   22.12400  # c3 C1 DMS 19
184 19 4  0.090000   11.80100    8.37800   22.37300  # h1 H1 DMS 19
185 19 4  0.090000   11.23800    9.48400   21.06400  # h1 H2 DMS 19
186 19 4  0.090000   11.45200   10.09200   22.73000  # h1 H3 DMS 19
187 19 3 -0.148000    9.28400    7.34800   21.49000  # c3 C2 DMS 19
188 19 4  0.090000    9.38600    7.63300   20.44200  # h1 H4 DMS 19
189 19 4  0.090000   10.04600    6.62500   21.78300  # h1 H5 DMS 19
190 19 4  0.090000    8.29100    6.93500   21.66900  # h1 H6 DMS 19
191 20 1  0.312000   10.02800   11.32300   -7.90200  # s4 S1 DMS 20
192 20 2 -0.556000    8.97800   10.40700   -7.30900  # o O1 DMS 20
193 20 3 -0.148000    9.81700   12.96200   -7.10100  # c3 C1 DMS 20
194 20 4  0.090000    9.80900   12.83000   -6.01800  # h1 H1 DMS 20
195 20 4  0.090000   10.62000   13.63100   -7.41600  # h1 H2 DMS 20
196 20 4  0.090000    8.85500   13.35000   -7.43600  # h1 H3 DMS 20
197 20 3 -0.148000   11.62100   10.89900   -7.09700  # c3 C2 DMS 20
198 20 4  0.090000   12.39200   11.60500   -7.41200  # h1 H4 DMS 20
199 20 4  0.090000   11.48700   10.91100   -6.01500  # h1 H5 DMS 20
200 20 4  0.090000   11.87800    9.89400   -7.42900  # h1 H6 DMS 20
201 21 1  0.312000   -4.87700  -20.70600   10.81200  # s4 S1 DMS 21
202 21 2 -0.556000   -3.54300  -21.28300   11.23800  # o O1 DMS 21
203 21 3 -0.148000   -4.67900  -20.13000    9.08000  # c3 C1 DMS 21
204 21 4  0.090000   -4.26000  -20.94000    8.48200  # h1 H1 DMS 21
205 21 4  0.090000   -5.64300  -19.80200    8.69000  # h1 H2 DMS 21
206 21 4  0.090000   -3.98300  -19.29200    9.10900  # h1 H3 DMS 21
207 21 3 -0.148000   -5.97600  -22.12600   10.43700  # c3 C2 DMS 21
208 21 4  0.090000   -6.91800  -21.76200   10.02200  # h1 H4 DMS 21
209 21 4  0.090000   -5.46700  -22.79700    9.74400  # h1 H5 DMS 21
210 21 4  0.090000   -6.15800  -22.63500   11.38300  # h1 H6 DMS 21
211 22 1  0.312000   20.97100   -2.77000   23.41500  # s4 S1 DMS 22
212 22 2 -0.556000   19.95100   -1.82300   22.81700  # o O1 DMS 22
213 22 3 -0.148000   20.57600   -4.44600   22.77900  # c3 C1 DMS 22
214 22 4  0.090000   20.49400   -4.40500   21.69200  # h1 H1 DMS 22
215 22 4  0.090000   21.34700   -5.15100   23.09600  # h1 H2 DMS 22
216 22 4  0.090000   19.61600   -4.72500   23.21300  # h1 H3 DMS 22
217 22 3 -0.148000   22.52500   -2.54700   22.46600  # c3 C2 DMS 22
218 22 4  0.090000   23.26200   -3.28500   22.78800  # h1 H4 DMS 22
219 22 4  0.090000   22.30800   -2.63800   21.40100  # h1 H5 DMS 22
220 22 4  0.090000   22.88200   -1.54200   22.68900  # h1 H6 DMS 22
221 23 1  0.312000   -6.52600   14.35900    4.12600  # s4 S1 DMS 23
222 23 2 -0.556000   -5.67700   15.61000    4.21300  # o O1 DMS 23
223 23 3 -0.148000   -7.08400   13.97600    5.83200  # c3 C1 DMS 23
224 23 4  0.090000   -7.53500   14.86800    6.26900  # h1 H1 DMS 23
225 23 4  0.090000   -7.78900   13.14200    5.81000  # h1 H2 DMS 23
226 23 4  0.090000   -6.19400   13.69600    6.39500  # h1 H3 DMS 23
227 23 3 -0.148000   -8.16500   14.87200    3.48000  # c3 C2 DMS 23
228 23 4  0.090000   -8.85100   14.02200    3.49900  # h1 H4 DMS 23
229 23 4  0.090000   -8.54100   15.70200    4.08000  # h1 H5 DMS 23
230 23 4  0.090000   -8.00500   15.19800    2.45200  # h1 H6 DMS 23
231 24 1  0.312000   14.26200   -2.71600  -13.05200  # s4 S1 DMS 24
232 24 2 -0.556000   12.87900   -3.32600  -12.96100  # o O1 DMS 24
233 24 3 -0.148000   15.22100   -3.35700  -11.62500  # c3 C1 DMS 24
234 24 4  0.090000   15.14500   -4.44400  -11.60300  # h1 H1 DMS 24
235 24 4  0.090000   16.26000   -3.03000  -11.70300  # h1 H2 DMS 24
236 24 4  0.090000   14.76500   -2.93500  -10.72900  # h1 H3 DMS 24
237 24 3 -0.148000   15.17000   -3.64500  -14.34900  # c3 C2 DMS 24
238 24 4  0.090000   16.20900   -3.31300  -14.37900  # h1 H4 DMS 24
239 24 4  0.090000   15.09700   -4.71200  -14.13800  # h1 H5 DMS 24
240 24 4  0.090000   14.67800   -3.41700  -15.29400  # h1 H6 DMS 24
241 25 1  0.312000   21.65800   -0.18000  -10.18300  # s4 S1 DMS 25
242 25 2 -0.556000   21.40200    1.07800  -10.98600  # o O1 DMS 25
243 25 3 -0.148000   20.27000   -1.32800  -10.53700  # c3 C1 DMS 25
244 25 4  0.090000   20.15500   -1.42700  -11.61700  # h1 H1 DMS 25
245 25 4  0.090000   20.46100   -2.29300  -10.06500  # h1 H2 DMS 25
246 25 4  0.090000   19.37500   -0.87500  -10.10900  # h1 H3 DMS 25
247 25 3 -0.148000   22.94800   -1.12900  -11.07900  # c3 C2 DMS 25
248 25 4  0.090000   23.09200   -2.09900  -10.59700  # h1 H4 DMS 25
249 25 4  0.090000   22.64800   -1.24200  -12.12100  # h1 H5 DMS 25
250 25 4  0.090000   23.86400   -0.54200  -11.01600  # h1 H6 DMS 25
251 26 1  0.312000    5.37400   22.92500  -20.59500  # s4 S1 DMS 26
252 26 2 -0.556000    4.67100   23.38500  -19.33500  # o O1 DMS 26
253 26 3 -0.148000    6.94700   22.14000  -20.07000  # c3 C1 DMS 26
254 26 4  0.090000    6.73400   21.39200  -19.30400  # h1 H1 DMS 26
255 26 4  0.090000    7.44300   21.69500  -20.93500  # h1 H2 DMS 26
256 26 4  0.090000    7.56700   22.93300  -19.65200  # h1 H3 DMS 26
257 26 3 -0.148000    4.54100   21.38400  -21.13800  # c3 C2 DMS 26
258 26 4  0.090000    5.07900   20.95300  -21.98500  # h1 H4 DMS 26
259 26 4  0.090000    4.49500   20.68900  -20.29900  # h1 H5 DMS 26
260 26 4  0.090000    3.53400   21.66700  -21.44300  # h1 H6 DMS 26
261 27 1  0.312000  -13.58800   -5.08000   -1.71400  # s4 S1 DMS 27
262 27 2 -0.556000  -13.51500   -4.50100   -0.31700  # o O1 DMS 27
263 27 3 -0.148000  -12.81600   -3.85300   -2.84000  # c3 C1 DMS 27
264 27 4  0.090000  -11.83300   -3.58300   -2.45200  # h1 H1 DMS 27
265 27 4  0.090000  -12.74700   -4.27000   -3.84600  # h1 H2 DMS 27
266 27 4  0.090000  -13.46800   -2.98000   -2.84200  # h1 H3 DMS 27
267 27 3 -0.148000  -12.26200   -6.34200   -1.83800  # c3 C2 DMS 27
268 27 4  0.090000  -12.20300   -6.71500   -2.86200  # h1 H4 DMS 27
269 27 4  0.090000  -11.31800   -5.89900   -1.51900  # h1 H5 DMS 27
270 27 4  0.090000  -12.54000   -7.15100   -1.16200  # h1 H6 DMS 27
271 28 1  0.312000   18.84900   13.80200   22.77400  # s4 S1 DMS 28
272 28 2 -0.556000   19.03900   13.55100   24.25600  # o O1 DMS 28
273 28 3 -0.148000   17.28300   12.97600   22.29100  # c3 C1 DMS 28
274 28 4  0.090000   16.48800   13.29600   22.96800  # h1 H1 DMS 28
275 28 4  0.090000   17.04500   13.21700   21.25400  # h1 H2 DMS 28
276 28 4  0.090000   17.45100   11.90400   22.39600  # h1 H3 DMS 28
277 28 3 -0.148000   18.24200   15.52400   22.59900  # c3 C2 DMS 28
278 28 4  0.090000   17.98700   15.72000   21.55500  # h1 H4 DMS 28
279 28 4  0.090000   17.38100   15.66700   23.25300  # h1 H5 DMS 28
280 28 4  0.090000   19.05900   16.17400   22.91100  # h1 H6 DMS 28
281 29 1  0.312000    0.89400   22.31500  -11.63500  # s4 S1 DMS 29
282 29 2 -0.556000    1.33300   23.59400  -10.95400  # o O1 DMS 29
283 29 3 -0.148000    1.94900   20.96900  -10.96900  # c3 C1 DMS 29
284 29 4  0.090000    1.92200   21.00100   -9.87900  # h1 H1 DMS 29
285 29 4  0.090000    1.60100   20.00700  -11.34900  # h1 H2 DMS 29
286 29 4  0.090000    2.96200   21.16400  -11.32200  # h1 H3 DMS 29
287 29 3 -0.148000   -0.66200   21.78500  -10.81900  # c3 C2 DMS 29
288 29 4  0.090000   -0.96400   20.80900  -11.20200  # h1 H4 DMS 29
289 29 4  0.090000   -0.50800   21.76100   -9.74000  # h1 H5 DMS 29
290 29 4  0.090000   -1.41400   22.53300  -11.07100  # h1 H6 DMS 29
291 30 1  0.312000   -9.02600    6.82200   -2.50400  # s4 S1 DMS 30
292 30 2 -0.556000   -7.82700    7.49000   -3.14400  # o O1 DMS 30
293 30 3 -0.148000  -10.50600    7.77400   -3.02500  # c3 C1 DMS 30
294 30 4  0.090000  -10.50000    7.87800   -4.11100  # h1 H1 DMS 30
295 30 4  0.090000  -11.40900    7.27000   -2.67700  # h1 H2 DMS 30
296 30 4  0.090000  -10.42500    8.75600   -2.55800  # h1 H3 DMS 30
297 30 3 -0.148000   -9.38700    5.31800   -3.49100  # c3 C2 DMS 30
298 30 4  0.090000  -10.31000    4.85600   -3.13500  # h1 H4 DMS 30
299 30 4  0.090000   -9.45800    5.59200   -4.54500  # h1 H5 DMS 30
300 30 4  0.090000   -8.54800    4.63900   -3.33900  # h1 H6 DMS 30
301 31 1  0.312000  -22.40100  -18.79400   14.64500  # s4 S1 DMS 31
302 31 2 -0.556000  -21.54000  -17.80000   15.39700  # o O1 DMS 31
303 31 3 -0.148000  -23.06500  -17.91700   13.17500  # c3 C1 DMS 31
304 31 4  0.090000  -22.24000  -17.44700   12.63700  # h1 H1 DMS 31
305 31 4  0.090000  -23.60600  -18.62000   12.54100  # h1 H2 DMS 31
306 31 4  0.090000  -23.74500  -17.15300   13.55000  # h1 H3 DMS 31
307 31 3 -0.148000  -21.25900  -19.90100   13.73000  # c3 C2 DMS 31
308 31 4  0.090000  -21.83400  -20.57000   13.08600  # h1 H4 DMS 31
309 31 4  0.090000  -20.56000  -19.29400   13.15400  # h1 H5 DMS 31
310 31 4  0.090000  -20.72100  -20.47900   14.48100  # h1 H6 DMS 31
311 32 1  0.312000   21.58200   -6.41700  -10.57700  # s4 S1 DMS 32
312 32 2 -0.556000   22.16400   -7.67200   -9.96200  # o O1 DMS 32
313 32 3 -0.148000   19.85400   -6.28000   -9.97200  # c3 C1 DMS 32
314 32 4  0.090000   19.85000   -6.36400   -8.88400  # h1 H1 DMS 32
315 32 4  0.090000   19.42300   -5.33400  -10.30200  # h1 H2 DMS 32
316 32 4  0.090000   19.30400   -7.11300  -10.41100  # h1 H3 DMS 32
317 32 3 -0.148000   22.25000   -4.99800   -9.62600  # c3 C2 DMS 32
318 32 4  0.090000   21.77600   -4.07300   -9.96200  # h1 H4 DMS 32
319 32 4  0.090000   22.07900   -5.17000   -8.56200  # h1 H5 DMS 32
320 32 4  0.090000   23.32000   -4.96400   -9.83100  # h1 H6 DMS 32
321 33 1  0.312000   18.60600   17.34500   18.60100  # s4 S1 DMS 33
322 33 2 -0.556000   18.35900   17.83500   20.01200  # o O1 DMS 33
323 33 3 -0.148000   17.58600   15.83500   18.37700  # c3 C1 DMS 33
324 33 4  0.090000   16.55800   16.05300   18.66800  # h1 H1 DMS 33
325 33 4  0.090000   17.64600   15.50200   17.33900  # h1 H2 DMS 33
326 33 4  0.090000   18.00600   15.07600   19.03700  # h1 H3 DMS 33
327 33 3 -0.148000   17.63100   18.42500   17.48400  # c3 C2 DMS 33
328 33 4  0.090000   17.69000   18.04500   16.46200  # h1 H4 DMS 33
329 33 4  0.090000   16.59900   18.46300   17.83700  # h1 H5 DMS 33
330 33 4  0.090000   18.08100   19.41500   17.54000  # h1 H6 DMS 33
331 34 1  0.312000  -14.51300    2.10800  -22.64900  # s4 S1 DMS 34
332 34 2 -0.556000  -14.53100    2.84900  -23.96900  # o O1 DMS 34
333 34 3 -0.148000  -16.14700    1.28900  -22.47700  # c3 C1 DMS 34
334 34 4  0.090000  -16.35500    0.71500  -23.38100  # h1 H1 DMS 34
335 34 4  0.090000  -16.14800    0.65300  -21.59000  # h1 H2 DMS 34
336 34 4  0.090000  -16.88300    2.08500  -22.36400  # h1 H3 DMS 34
337 34 3 -0.148000  -13.53800    0.57600  -22.91200  # c3 C2 DMS 34
338 34 4  0.090000  -13.58500   -0.04800  -22.01700  # h1 H4 DMS 34
339 34 4  0.090000  -13.92700    0.05200  -23.78600  # h1 H5 DMS 34
340 34 4  0.090000  -12.51100    0.89100  -23.09400  # h1 H6 DMS 34
341 35 1  0.312000   20.15300   17.09300   -6.52000  # s4 S1 DMS 35
342 35 2 -0.556000   19.28000   15.87300   -6.72500  # o O1 DMS 35
343 35 3 -0.148000   21.87200   16.48700   -6.30700  # c3 C1 DMS 35
344 35 4  0.090000   22.11800   15.81700   -7.13200  # h1 H1 DMS 35
345 35 4  0.090000   22.55800   17.33500   -6.26300  # h1 H2 DMS 35
346 35 4  0.090000   21.89500   15.94000   -5.36500  # h1 H3 DMS 35
347 35 3 -0.148000   20.40100   17.85300   -8.17200  # c3 C2 DMS 35
348 35 4  0.090000   21.11300   18.67700   -8.09400  # h1 H4 DMS 35
349 35 4  0.090000   20.74900   17.08800   -8.86700  # h1 H5 DMS 35
350 35 4  0.090000   19.42900   18.23000   -8.48900  # h1 H6 DMS 35
351 36 1  0.312000   13.94300   18.52600  -20.14200  # s4 S1 DMS 36
352 36 2 -0.556000   13.61900   17.85800  -18.82200  # o O1 DMS 36
353 36 3 -0.148000   14.96300   20.00200  -19.75500  # c3 C1 DMS 36
354 36 4  0.090000   15.79600   19.70300  -19.11800  # h1 H1 DMS 36
355 36 4  0.090000   15.31400   20.46000  -20.68200  # h1 H2 DMS 36
356 36 4  0.090000   14.31600   20.69500  -19.21900  # h1 H3 DMS 36
357 36 3 -0.148000   15.28300   17.54300  -20.92100  # c3 C2 DMS 36
358 36 4  0.090000   15.62800   18.04500  -21.82700  # h1 H4 DMS 36
359 36 4  0.090000   16.09400   17.41500  -20.20300  # h1 H5 DMS 36
360 36 4  0.090000   14.85100   16.57500  -21.17300  # h1 H6 DMS 36
361 37 1  0.312000   12.06900   14.18400    3.84200  # s4 S1 DMS 37
362 37 2 -0.556000   11.49800   14.88700    2.62800  # o O1 DMS 37
363 37 3 -0.148000   13.78700   13.69900    3.41600  # c3 C1 DMS 37
364 37 4  0.090000   14.32000   14.57200    3.03500  # h1 H1 DMS 37
365 37 4  0.090000   14.28100   13.28300    4.29600  # h1 H2 DMS 37
366 37 4  0.090000   13.71300   12.94100    2.63700  # h1 H3 DMS 37
367 37 3 -0.148000   12.51300   15.48900    5.05200  # c3 C2 DMS 37
368 37 4  0.090000   13.02900   15.04100    5.90400  # h1 H4 DMS 37
369 37 4  0.090000   13.13400   16.23700    4.55800  # h1 H5 DMS 37
370 37 4  0.090000   11.57600   15.94000    5.37900  # h1 H6 DMS 37
371 38 1  0.312000  -20.28800   17.70900  -20.14900  # s4 S1 DMS 38
372 38 2 -0.556000  -20.87300   16.36500  -19.77100  # o O1 DMS 38
373 38 3 -0.148000  -21.44000   18.46800  -21.36000  # c3 C1 DMS 38
374 38 4  0.090000  -22.45000   18.45000  -20.95000  # h1 H1 DMS 38
375 38 4  0.090000  -21.11800   19.48600  -21.58500  # h1 H2 DMS 38
376 38 4  0.090000  -21.39300   17.85500  -22.26000  # h1 H3 DMS 38
377 38 3 -0.148000  -20.65100   18.85700  -18.76500  # c3 C2 DMS 38
378 38 4  0.090000  -20.34300   19.86900  -19.03700  # h1 H4 DMS 38
379 38 4  0.090000  -21.71700   18.81200  -18.53600  # h1 H5 DMS 38
380 38 4  0.090000  -20.07100   18.50700  -17.91200  # h1 H6 DMS 38
381 39 1  0.312000  -22.38000   13.98200  -19.34100  # s4 S1 DMS 39
382 39 2 -0.556000  -22.69100   15.12900  -20.28100  # o O1 DMS 39
383 39 3 -0.148000  -20.65100   13.47000  -19.68200  # c3 C1 DMS 39
384 39 4  0.090000  -20.00500   14.34800  -19.64500  # h1 H1 DMS 39
385 39 4  0.090000  -20.34200   12.71500  -18.95600  # h1 H2 DMS 39
386 39 4  0.090000  -20.64500   13.04600  -20.68600  # h1 H3 DMS 39
387 39 3 -0.148000  -22.06000   14.71800  -17.69100  # c3 C2 DMS 39
388 39 4  0.090000  -21.72500   13.94100  -17.00100  # h1 H4 DMS 39
389 39 4  0.090000  -21.31600   15.51000  -17.79300  # h1 H5 DMS 39
390 39 4  0.090000  -23.00600   15.13700  -17.35000  # h1 H6 DMS 39
391 40 1  0.312000    0.17800   20.26700    2.90800  # s4 S1 DMS 40
392 40 2 -0.556000    0.57700   19.09600    3.78000  # o O1 DMS 40
393 40 3 -0.148000   -1.65700   20.29900    2.86700  # c3 C1 DMS 40
394 40 4  0.090000   -2.03600   20.27300    3.88900  # h1 H1 DMS 40
395 40 4  0.090000   -1.99700   21.19000    2.33700  # h1 H2 DMS 40
396 40 4  0.090000   -1.97100   19.40400    2.33100  # h1 H3 DMS 40
397 40 3 -0.148000    0.39200   21.78200    3.92000  # c3 C2 DMS 40
398 40 4  0.090000    0.01500   22.64800    3.37100  # h1 H4 DMS 40
399 40 4  0.090000   -0.13000   21.65300    4.86900  # h1 H5 DMS 40
400 40 4  0.090000    1.46200   21.89000    4.09500  # h1 H6 DMS 40
401 41 1  0.312000  -12.45200   -8.08100  -15.97600  # s4 S1 DMS 41
402 41 2 -0.556000  -13.89500   -7.85600  -15.57500  # o O1 DMS 41
403 41 3 -0.148000  -12.16100   -7.09100  -17.49400  # c3 C1 DMS 41
404 41 4  0.090000  -12.48700   -6.06500  -17.31900  # h1 H1 DMS 41
405 41 4  0.090000  -11.10400   -7.13500  -17.76400  # h1 H2 DMS 41
406 41 4  0.090000  -12.76500   -7.54400  -18.28000  # h1 H3 DMS 41
407 41 3 -0.148000  -11.42200   -7.05400  -14.85600  # c3 C2 DMS 41
408 41 4  0.090000  -10.37800   -7.09800  -15.17300  # h1 H4 DMS 41
409 41 4  0.090000  -11.79900   -6.03100  -14.86400  # h1 H5 DMS 41
410 41 4  0.090000  -11.52700   -7.48200  -13.86000  # h1 H6 DMS 41
411 42 1  0.312000    3.49000    7.31900    7.92800  # s4 S1 DMS 42
412 42 2 -0.556000    4.53800    6.72000    8.84200  # o O1 DMS 42
413 42 3 -0.148000    2.06200    6.16600    7.93000  # c3 C1 DMS 42
414 42 4  0.090000    1.77700    5.95300    8.96100  # h1 H1 DMS 42
415 42 4  0.090000    1.23400    6.60400    7.36900  # h1 H2 DMS 42
416 42 4  0.090000    2.39900    5.25100    7.44200  # h1 H3 DMS 42
417 42 3 -0.148000    2.67300    8.66700    8.86700  # c3 C2 DMS 42
418 42 4  0.090000    1.83400    9.06100    8.28900  # h1 H4 DMS 42
419 42 4  0.090000    2.34500    8.28000    9.83300  # h1 H5 DMS 42
420 42 4  0.090000    3.42300    9.44300    9.01100  # h1 H6 DMS 42
421 43 1  0.312000  -17.48400  -21.18800  -19.68100  # s4 S1 DMS 43
422 43 2 -0.556000  -16.78700  -20.11600  -18.86900  # o O1 DMS 43
423 43 3 -0.148000  -16.23300  -21.87600  -20.83500  # c3 C1 DMS 43
424 43 4  0.090000  -15.34500  -22.16200  -20.27000  # h1 H1 DMS 43
425 43 4  0.090000  -16.65700  -22.72800  -21.37100  # h1 H2 DMS 43
426 43 4  0.090000  -15.98600  -21.08000  -21.53700  # h1 H3 DMS 43
427 43 3 -0.148000  -17.61500  -22.66900  -18.60600  # c3 C2 DMS 43