LAMMPS data file
# 512 DMS molecules
# 40 LI molecules
# 40 PYR molecules

10 atom types
12 bond types
17 angle types
18 dihedral types
4 improper types

5520 atoms
4968 bonds
8200 angles
6784 dihedrals
160 impropers

-26.4555 26.4555 xlo xhi
-26.4555 26.4555 ylo yhi
-26.4555 26.4555 zlo zhi

Masses

1   32.060  # s4 DMS
2   16.000  # o DMS
3   12.010  # c3 DMS
4    1.008  # h1 DMS
5    6.941  # li LI
6   12.010  # cc PYR
7   12.010  # cd PYR
8   14.010  # n1 PYR
9    1.008  # h4 PYR
10    1.008  # ha PYR

Pair Coeffs

1 0.350 3.564  # s4 DMS
2 0.120 3.029  # o DMS
3 0.078 3.635  # c3 DMS
4 0.024 2.388  # h1 DMS
5 0.0182660800896 2.126  # li LI
6 0.0859427210304 3.400  # cc PYR
7 0.0859427210304 3.400  # cd PYR
8 0.169885665734 3.250  # n1 PYR
9 0.0149893860096 2.511  # h4 PYR
10 0.0149893860096 2.600  # ha PYR

Bond Coeffs

1 540 1.53  # harmonic DMS o s4
2 240 1.80  # harmonic DMS c3 s4
3 322 1.11  # harmonic DMS c3 h1
4 418.018786099  1.429  # harmonic PYR cc cc
5 539.937622253  1.309  # harmonic PYR cc n1
6 349.86553511  1.083  # harmonic PYR cc h4
7 503.661639974  1.371  # harmonic PYR cc cd
8 346.968143194  1.085  # harmonic PYR cc ha
9 418.018786099  1.429  # harmonic PYR cd cd
10 346.968143194  1.085  # harmonic PYR cd ha
11 539.937622253  1.309  # harmonic PYR cd n1
12 349.86553511  1.083  # harmonic PYR cd h4

Angle Coeffs

1 46.1 111.3  # harmonic DMS h1 c3 s4
2 79.0 106.75  # harmonic DMS c3 s4 o
3 34.0 95.0  # harmonic DMS c3 s4 c3
4 35.5 108.4  # harmonic DMS h1 c3 h1
5 68.1135334848  114.19  # harmonic PYR cc cc cd
6 47.4286574016  119.26  # harmonic PYR cc cc ha
7 0.0    0.00  # harmonic PYR cc n1 cd
8 71.6424337152  122.98  # harmonic PYR cc cc n1
9 45.5301607104  129.47  # harmonic PYR cc cc h4
10 68.1135334848  114.19  # harmonic PYR cc cd cd
11 48.3183294912  122.89  # harmonic PYR cc cd ha
12 48.3183294912  122.89  # harmonic PYR cd cc ha
13 71.6424337152  122.98  # harmonic PYR cd cd n1
14 45.5301607104  129.47  # harmonic PYR cd cd h4
15 46.9877931072  121.51  # harmonic PYR cd cd ha
16 52.6137775488  116.36  # harmonic PYR h4 cc n1
17 52.6137775488  116.36  # harmonic PYR h4 cd n1

Dihedral Coeffs

1 0.2  3 0 0.0  # charmm DMS h1 c3 s4 o
2 0.2  3 0 0.0  # charmm DMS h1 c3 s4 c3
3 3.99732847258  2 180 0.0  # charmm PYR cd cc cc n1
4 3.99732847258  2 180 0.0  # charmm PYR cd cc cc h4
5 3.99732847258  2 180 0.0  # charmm PYR ha cc cc n1
6 3.99732847258  2 180 0.0  # charmm PYR h4 cc cc ha
7 0.0  2 180 0.0  # charmm PYR cc cc n1 cd
8 0.0  2 180 0.0  # charmm PYR h4 cc n1 cd
9 3.99732847258  2 180 0.0  # charmm PYR cc cc cd cd
10 3.99732847258  2 180 0.0  # charmm PYR ha cc cd cd
11 3.99732847258  2 180 0.0  # charmm PYR cc cc cd ha
12 3.99732847258  2 180 0.0  # charmm PYR ha cc cd ha
13 3.99732847258  2 180 0.0  # charmm PYR cc cd cd n1
14 3.99732847258  2 180 0.0  # charmm PYR ha cd cd n1
15 3.99732847258  2 180 0.0  # charmm PYR cc cd cd h4
16 3.99732847258  2 180 0.0  # charmm PYR h4 cd cd ha
17 0.0  2 180 0.0  # charmm PYR cd cd n1 cc
18 0.0  2 180 0.0  # charmm PYR h4 cd n1 cc

Improper Coeffs

1 1.09926135821 -1  2  # cvff PYR cc h4 cc n1
2 1.09926135821 -1  2  # cvff PYR cc cd cc ha
3 1.09926135821 -1  2  # cvff PYR cc cd cd ha
4 1.09926135821 -1  2  # cvff PYR cd h4 cd n1

Atoms

1 1 1  0.359151   15.23150   -9.30050  -17.36450  # s4 S1 DMS 1
2 1 2 -0.485225   13.82350   -9.46150  -16.82950  # o O1 DMS 1
3 1 3 -0.498374   16.03950   -8.00050  -16.35150  # c3 C1 DMS 1
4 1 4  0.187137   15.92050   -8.24550  -15.29550  # h1 H1 DMS 1
5 1 4  0.187137   17.09250   -7.92050  -16.62750  # h1 H2 DMS 1
6 1 4  0.187137   15.52350   -7.06650  -16.57550  # h1 H3 DMS 1
7 1 3 -0.498374   16.21050  -10.71050  -16.71650  # c3 C2 DMS 1
8 1 4  0.187137   17.26150  -10.58250  -16.98550  # h1 H4 DMS 1
9 1 4  0.187137   16.08050  -10.76750  -15.63450  # h1 H5 DMS 1
10 1 4  0.187137   15.81150  -11.60750  -17.18750  # h1 H6 DMS 1
11 2 1  0.359151    5.95050  -14.46150  -21.71150  # s4 S1 DMS 2
12 2 2 -0.485225    5.56850  -13.01450  -21.48350  # o O1 DMS 2
13 2 3 -0.498374    6.27250  -15.19350  -20.05950  # c3 C1 DMS 2
14 2 4  0.187137    5.42250  -14.98750  -19.40650  # h1 H1 DMS 2
15 2 4  0.187137    6.44750  -16.26550  -20.16050  # h1 H2 DMS 2
16 2 4  0.187137    7.16550  -14.70350  -19.67150  # h1 H3 DMS 2
17 2 3 -0.498374    4.39450  -15.37550  -22.04650  # c3 C2 DMS 2
18 2 4  0.187137    4.60450  -16.44550  -22.11150  # h1 H4 DMS 2
19 2 4  0.187137    3.67650  -15.15750  -21.25550  # h1 H5 DMS 2
20 2 4  0.187137    4.02050  -15.01050  -23.00150  # h1 H6 DMS 2
21 3 1  0.359151  -20.56850   17.75850   -9.86350  # s4 S1 DMS 3
22 3 2 -0.485225  -20.58150   19.08750  -10.58850  # o O1 DMS 3
23 3 3 -0.498374  -20.84050   18.12150   -8.08450  # c3 C1 DMS 3
24 3 4  0.187137  -21.72550   18.75050   -7.98050  # h1 H1 DMS 3
25 3 4  0.187137  -20.94750   17.18750   -7.53150  # h1 H2 DMS 3
26 3 4  0.187137  -19.95850   18.66150   -7.73950  # h1 H3 DMS 3
27 3 3 -0.498374  -22.19750   16.97050  -10.16750  # c3 C2 DMS 3
28 3 4  0.187137  -22.27950   16.05650   -9.57750  # h1 H4 DMS 3
29 3 4  0.187137  -22.98850   17.67950   -9.91950  # h1 H5 DMS 3
30 3 4  0.187137  -22.23250   16.73150  -11.23050  # h1 H6 DMS 3
31 4 1  0.359151   17.13150   -1.36650  -14.28350  # s4 S1 DMS 4
32 4 2 -0.485225   18.33050   -2.28950  -14.34250  # o O1 DMS 4
33 4 3 -0.498374   15.65850   -2.42650  -14.00650  # c3 C1 DMS 4
34 4 4  0.187137   15.84250   -3.07650  -13.15050  # h1 H1 DMS 4
35 4 4  0.187137   14.77850   -1.79850  -13.84850  # h1 H2 DMS 4
36 4 4  0.187137   15.53250   -3.02550  -14.90850  # h1 H3 DMS 4
37 4 3 -0.498374   17.14250   -0.58550  -12.62350  # c3 C2 DMS 4
38 4 4  0.187137   16.23650    0.00950  -12.49050  # h1 H4 DMS 4
39 4 4  0.187137   17.22450   -1.36350  -11.86350  # h1 H5 DMS 4
40 4 4  0.187137   18.02050    0.06050  -12.59150  # h1 H6 DMS 4
41 5 1  0.359151  -12.08150  -10.79150  -18.11750  # s4 S1 DMS 5
42 5 2 -0.485225  -11.98950   -9.77050  -19.23150  # o O1 DMS 5
43 5 3 -0.498374  -10.73650  -10.40650  -16.93050  # c3 C1 DMS 5
44 5 4  0.187137  -10.79150   -9.35150  -16.65950  # h1 H1 DMS 5
45 5 4  0.187137  -10.82550  -11.04950  -16.05250  # h1 H2 DMS 5
46 5 4  0.187137   -9.79850  -10.60950  -17.44650  # h1 H3 DMS 5
47 5 3 -0.498374  -13.47050  -10.27550  -17.03650  # c3 C2 DMS 5
48 5 4  0.187137  -13.51150  -10.92050  -16.15650  # h1 H4 DMS 5
49 5 4  0.187137  -13.33550   -9.22950  -16.75850  # h1 H5 DMS 5
50 5 4  0.187137  -14.38050  -10.38950  -17.62450  # h1 H6 DMS 5
51 6 1  0.359151   -8.82050   14.51150   -7.91150  # s4 S1 DMS 6
52 6 2 -0.485225   -7.49950   14.94050   -7.30850  # o O1 DMS 6
53 6 3 -0.498374   -9.09650   12.76950   -7.40350  # c3 C1 DMS 6
54 6 4  0.187137   -8.98150   12.69150   -6.32150  # h1 H1 DMS 6
55 6 4  0.187137  -10.08850   12.44650   -7.72450  # h1 H2 DMS 6
56 6 4  0.187137   -8.33150   12.17550   -7.90250  # h1 H3 DMS 6
57 6 3 -0.498374  -10.14350   15.24550   -6.87350  # c3 C2 DMS 6
58 6 4  0.187137  -11.11650   14.87750   -7.20350  # h1 H4 DMS 6
59 6 4  0.187137   -9.95550   14.99550   -5.82850  # h1 H5 DMS 6
60 6 4  0.187137  -10.08550   16.32450   -7.01450  # h1 H6 DMS 6
61 7 1  0.359151   13.81950   12.29250   13.98150  # s4 S1 DMS 7
62 7 2 -0.485225   12.33350   12.26250   14.26850  # o O1 DMS 7
63 7 3 -0.498374   14.25050   14.03350   13.59050  # c3 C1 DMS 7
64 7 4  0.187137   13.87150   14.68050   14.38250  # h1 H1 DMS 7
65 7 4  0.187137   15.33250   14.12850   13.47950  # h1 H2 DMS 7
66 7 4  0.187137   13.75750   14.27150   12.64750  # h1 H3 DMS 7
67 7 3 -0.498374   14.67650   12.22350   15.60250  # c3 C2 DMS 7
68 7 4  0.187137   15.75150   12.35050   15.45550  # h1 H4 DMS 7
69 7 4  0.187137   14.26750   12.99650   16.25450  # h1 H5 DMS 7
70 7 4  0.187137   14.47150   11.23750   16.01850  # h1 H6 DMS 7
71 8 1  0.359151   16.82550  -12.35750  -20.16150  # s4 S1 DMS 8
72 8 2 -0.485225   15.64650  -13.10250  -20.75150  # o O1 DMS 8
73 8 3 -0.498374   18.33450  -13.29050  -20.63150  # c3 C1 DMS 8
74 8 4  0.187137   18.32650  -13.46150  -21.70950  # h1 H1 DMS 8
75 8 4  0.187137   19.22150  -12.73650  -20.32050  # h1 H2 DMS 8
76 8 4  0.187137   18.28650  -14.24350  -20.10450  # h1 H3 DMS 8
77 8 3 -0.498374   17.13150  -10.90550  -21.24150  # c3 C2 DMS 8
78 8 4  0.187137   18.04050  -10.39350  -20.91950  # h1 H4 DMS 8
79 8 4  0.187137   17.20750  -11.24150  -22.27650  # h1 H5 DMS 8
80 8 4  0.187137   16.27150  -10.24650  -21.12550  # h1 H6 DMS 8
81 9 1  0.359151   -6.83450  -12.01350   -3.29850  # s4 S1 DMS 9
82 9 2 -0.485225   -5.49250  -11.35450   -3.05750  # o O1 DMS 9
83 9 3 -0.498374   -6.60850  -13.18250   -4.69550  # c3 C1 DMS 9
84 9 4  0.187137   -5.75450  -13.82750   -4.48550  # h1 H1 DMS 9
85 9 4  0.187137   -7.52150  -13.76250   -4.83950  # h1 H2 DMS 9
86 9 4  0.187137   -6.40850  -12.57650   -5.57850  # h1 H3 DMS 9
87 9 3 -0.498374   -7.04450  -13.28550   -1.99250  # c3 C2 DMS 9
88 9 4  0.187137   -7.95050  -13.86450   -2.18550  # h1 H4 DMS 9
89 9 4  0.187137   -6.16050  -13.92350   -1.97050  # h1 H5 DMS 9
90 9 4  0.187137   -7.13950  -12.74850   -1.04950  # h1 H6 DMS 9
91 10 1  0.359151   20.17850   -9.15750   -4.54150  # s4 S1 DMS 10
92 10 2 -0.485225   20.02050   -7.73750   -4.04150  # o O1 DMS 10
93 10 3 -0.498374   19.86250  -10.26350   -3.11150  # c3 C1 DMS 10
94 10 4  0.187137   18.91250   -9.98850   -2.65050  # h1 H1 DMS 10
95 10 4  0.187137   19.85950  -11.30350   -3.44450  # h1 H2 DMS 10
96 10 4  0.187137   20.67750  -10.10050   -2.40650  # h1 H3 DMS 10
97 10 3 -0.498374   18.64850   -9.56950   -5.46750  # c3 C2 DMS 10
98 10 4  0.187137   18.66650  -10.62150   -5.75850  # h1 H4 DMS 10
99 10 4  0.187137   17.78250   -9.34250   -4.84350  # h1 H5 DMS 10
100 10 4  0.187137   18.64350   -8.93750   -6.35450  # h1 H6 DMS 10
101 11 1  0.359151    7.81950   -4.19550  -14.68050  # s4 S1 DMS 11
102 11 2 -0.485225    9.32350   -4.36250  -14.72450  # o O1 DMS 11
103 11 3 -0.498374    7.09150   -5.84850  -15.00750  # c3 C1 DMS 11
104 11 4  0.187137    7.54350   -6.57650  -14.33250  # h1 H1 DMS 11
105 11 4  0.187137    6.00850   -5.80450  -14.88050  # h1 H2 DMS 11
106 11 4  0.187137    7.33650   -6.09750  -16.03950  # h1 H3 DMS 11
107 11 3 -0.498374    7.34550   -4.10350  -12.91050  # c3 C2 DMS 11
108 11 4  0.187137    6.25750   -4.09050  -12.82150  # h1 H4 DMS 11
109 11 4  0.187137    7.77950   -4.95250  -12.38150  # h1 H5 DMS 11
110 11 4  0.187137    7.76150   -3.17350  -12.52650  # h1 H6 DMS 11
111 12 1  0.359151    5.82550   -1.54550  -12.19750  # s4 S1 DMS 12
112 12 2 -0.485225    6.22550   -0.26250  -11.50050  # o O1 DMS 12
113 12 3 -0.498374    4.42450   -2.25350  -11.24450  # c3 C1 DMS 12
114 12 4  0.187137    3.66050   -1.48650  -11.11150  # h1 H1 DMS 12
115 12 4  0.187137    4.02850   -3.12650  -11.76750  # h1 H2 DMS 12
116 12 4  0.187137    4.82550   -2.55050  -10.27550  # h1 H3 DMS 12
117 12 3 -0.498374    4.85150   -1.06750  -13.67650  # c3 C2 DMS 12
118 12 4  0.187137    4.44850   -1.96050  -14.15650  # h1 H4 DMS 12
119 12 4  0.187137    4.05850   -0.38250  -13.37450  # h1 H5 DMS 12
120 12 4  0.187137    5.54250   -0.56150  -14.35150  # h1 H6 DMS 12
121 13 1  0.359151   10.16850  -17.51650  -22.96250  # s4 S1 DMS 13
122 13 2 -0.485225   11.32350  -17.96350  -23.83350  # o O1 DMS 13
123 13 3 -0.498374    8.63350  -18.13450  -23.75650  # c3 C1 DMS 13
124 13 4  0.187137    8.73950  -19.20250  -23.95450  # h1 H1 DMS 13
125 13 4  0.187137    7.77750  -17.93050  -23.11050  # h1 H2 DMS 13
126 13 4  0.187137    8.52950  -17.59150  -24.69550  # h1 H3 DMS 13
127 13 3 -0.498374   10.12550  -18.64450  -21.51650  # c3 C2 DMS 13
128 13 4  0.187137    9.24250  -18.43150  -20.90950  # h1 H4 DMS 13
129 13 4  0.187137   10.12750  -19.67650  -21.86950  # h1 H5 DMS 13
130 13 4  0.187137   11.02950  -18.44550  -20.94150  # h1 H6 DMS 13
131 14 1  0.359151   -4.61950    5.49750   -6.34050  # s4 S1 DMS 14
132 14 2 -0.485225   -5.45050    4.60750   -5.44050  # o O1 DMS 14
133 14 3 -0.498374   -5.54850    7.06850   -6.53750  # c3 C1 DMS 14
134 14 4  0.187137   -5.81750    7.44950   -5.55150  # h1 H1 DMS 14
135 14 4  0.187137   -4.94150    7.78750   -7.09150  # h1 H2 DMS 14
136 14 4  0.187137   -6.44950    6.82850   -7.10150  # h1 H3 DMS 14
137 14 3 -0.498374   -3.26650    6.18250   -5.30850  # c3 C2 DMS 14
138 14 4  0.187137   -2.69950    6.91650   -5.88450  # h1 H4 DMS 14
139 14 4  0.187137   -3.69450    6.62450   -4.40750  # h1 H5 DMS 14
140 14 4  0.187137   -2.62450    5.34250   -5.04150  # h1 H6 DMS 14
141 15 1  0.359151   22.49550   -0.43550   18.74250  # s4 S1 DMS 15
142 15 2 -0.485225   22.23250   -1.46650   17.66550  # o O1 DMS 15
143 15 3 -0.498374   24.30350   -0.11850   18.74450  # c3 C1 DMS 15
144 15 4  0.187137   24.62650    0.11250   17.72850  # h1 H1 DMS 15
145 15 4  0.187137   24.53350    0.69750   19.43150  # h1 H2 DMS 15
146 15 4  0.187137   24.78050   -1.03750   19.08550  # h1 H3 DMS 15
147 15 3 -0.498374   21.99850    1.19150   18.05450  # c3 C2 DMS 15
148 15 4  0.187137   22.26950    1.98450   18.75450  # h1 H4 DMS 15
149 15 4  0.187137   22.48150    1.33150   17.08650  # h1 H5 DMS 15
150 15 4  0.187137   20.91650    1.15750   17.93050  # h1 H6 DMS 15
151 16 1  0.359151    2.60050  -11.94150  -18.76350  # s4 S1 DMS 16
152 16 2 -0.485225    1.91150  -12.33250  -17.47350  # o O1 DMS 16
153 16 3 -0.498374    4.37850  -12.35150  -18.56150  # c3 C1 DMS 16
154 16 4  0.187137    4.46950  -13.38650  -18.22750  # h1 H1 DMS 16
155 16 4  0.187137    4.90350  -12.18850  -19.50450  # h1 H2 DMS 16
156 16 4  0.187137    4.76750  -11.67950  -17.79650  # h1 H3 DMS 16
157 16 3 -0.498374    2.22050  -13.25350  -19.98850  # c3 C2 DMS 16
158 16 4  0.187137    2.78350  -13.07350  -20.90650  # h1 H4 DMS 16
159 16 4  0.187137    2.46150  -14.22550  -19.55650  # h1 H5 DMS 16
160 16 4  0.187137    1.15150  -13.18950  -20.18850  # h1 H6 DMS 16
161 17 1  0.359151  -11.37350   13.57450  -18.27450  # s4 S1 DMS 17
162 17 2 -0.485225  -11.00650   14.82350  -19.04850  # o O1 DMS 17
163 17 3 -0.498374  -12.51150   14.09650  -16.93150  # c3 C1 DMS 17
164 17 4  0.187137  -13.32150   14.68650  -17.35950  # h1 H1 DMS 17
165 17 4  0.187137  -12.89050   13.21650  -16.40850  # h1 H2 DMS 17
166 17 4  0.187137  -11.92450   14.71150  -16.24850  # h1 H3 DMS 17
167 17 3 -0.498374  -12.62550   12.67850  -19.27250  # c3 C2 DMS 17
168 17 4  0.187137  -13.00350   11.82350  -18.70750  # h1 H4 DMS 17
169 17 4  0.187137  -13.42850   13.36650  -19.53850  # h1 H5 DMS 17
170 17 4  0.187137  -12.11650   12.33450  -20.17250  # h1 H6 DMS 17
171 18 1  0.359151  -13.62150   -3.77450   -9.31550  # s4 S1 DMS 18
172 18 2 -0.485225  -13.06850   -5.16350   -9.55450  # o O1 DMS 18
173 18 3 -0.498374  -15.06250   -3.96150   -8.19350  # c3 C1 DMS 18
174 18 4  0.187137  -14.76250   -4.54750   -7.32350  # h1 H1 DMS 18
175 18 4  0.187137  -15.43350   -2.97750   -7.90350  # h1 H2 DMS 18
176 18 4  0.187137  -15.82750   -4.49750   -8.75650  # h1 H3 DMS 18
177 18 3 -0.498374  -12.51350   -2.96150   -8.09950  # c3 C2 DMS 18
178 18 4  0.187137  -12.92950   -1.99450   -7.81150  # h1 H4 DMS 18
179 18 4  0.187137  -12.39050   -3.61750   -7.23650  # h1 H5 DMS 18
180 18 4  0.187137  -11.55550   -2.82150   -8.59950  # h1 H6 DMS 18
181 19 1  0.359151  -15.18950  -18.18750   21.30050  # s4 S1 DMS 19
182 19 2 -0.485225  -13.94950  -18.80650   21.91050  # o O1 DMS 19
183 19 3 -0.498374  -15.84250  -16.98750   22.52650  # c3 C1 DMS 19
184 19 4  0.187137  -15.03750  -16.31850   22.83350  # h1 H1 DMS 19
185 19 4  0.187137  -16.67750  -16.43550   22.09050  # h1 H2 DMS 19
186 19 4  0.187137  -16.18650  -17.57150   23.37950  # h1 H3 DMS 19
187 19 3 -0.498374  -14.61750  -16.94650   20.07650  # c3 C2 DMS 19
188 19 4  0.187137  -15.47450  -16.39450   19.68450  # h1 H4 DMS 19
189 19 4  0.187137  -13.89750  -16.28050   20.55350  # h1 H5 DMS 19
190 19 4  0.187137  -14.13450  -17.50350   19.27350  # h1 H6 DMS 19
191 20 1  0.359151    1.06350  -10.33150  -19.42650  # s4 S1 DMS 20
192 20 2 -0.485225    0.31350  -11.11450  -18.36950  # o O1 DMS 20
193 20 3 -0.498374   -0.18850   -9.70950  -20.61650  # c3 C1 DMS 20
194 20 4  0.187137   -0.97850   -9.19550  -20.06650  # h1 H1 DMS 20
195 20 4  0.187137    0.28950   -9.04750  -21.34050  # h1 H2 DMS 20
196 20 4  0.187137   -0.59750  -10.58350  -21.12350  # h1 H3 DMS 20
197 20 3 -0.498374    1.47850   -8.70350  -18.68850  # c3 C2 DMS 20
198 20 4  0.187137    1.92750   -8.05950  -19.44750  # h1 H4 DMS 20
199 20 4  0.187137    0.57350   -8.25950  -18.27250  # h1 H5 DMS 20
200 20 4  0.187137    2.19750   -8.89850  -17.89350  # h1 H6 DMS 20
201 21 1  0.359151   -9.04950  -18.11850   11.34450  # s4 S1 DMS 21
202 21 2 -0.485225   -9.32850  -19.17950   12.38850  # o O1 DMS 21
203 21 3 -0.498374   -8.37750  -18.98550    9.87250  # c3 C1 DMS 21
204 21 4  0.187137   -9.04850  -19.80250    9.60250  # h1 H1 DMS 21
205 21 4  0.187137   -8.26050  -18.27650    9.05050  # h1 H2 DMS 21
206 21 4  0.187137   -7.40550  -19.38350   10.16350  # h1 H3 DMS 21
207 21 3 -0.498374  -10.66550  -17.66550   10.60150  # c3 C2 DMS 21
208 21 4  0.187137  -10.50750  -16.98050    9.76650  # h1 H4 DMS 21
209 21 4  0.187137  -11.17750  -18.57450   10.28150  # h1 H5 DMS 21
210 21 4  0.187137  -11.23950  -17.17250   11.38550  # h1 H6 DMS 21
211 22 1  0.359151    5.56850  -12.03650   10.98750  # s4 S1 DMS 22
212 22 2 -0.485225    6.26050  -12.13050    9.64450  # o O1 DMS 22
213 22 3 -0.498374    4.60650  -13.58550   11.19850  # c3 C1 DMS 22
214 22 4  0.187137    5.26250  -14.43950   11.02150  # h1 H1 DMS 22
215 22 4  0.187137    4.17350  -13.61550   12.20050  # h1 H2 DMS 22
216 22 4  0.187137    3.81450  -13.56450   10.45050  # h1 H3 DMS 22
217 22 3 -0.498374    6.83450  -12.39950   12.26550  # c3 C2 DMS 22
218 22 4  0.187137    6.36150  -12.45050   13.24750  # h1 H4 DMS 22
219 22 4  0.187137    7.33550  -13.33550   12.01350  # h1 H5 DMS 22
220 22 4  0.187137    7.54750  -11.57650   12.23750  # h1 H6 DMS 22
221 23 1  0.359151   -4.98950    3.63750   10.76150  # s4 S1 DMS 23
222 23 2 -0.485225   -5.96850    4.77850   10.58150  # o O1 DMS 23
223 23 3 -0.498374   -5.95550    2.19750   11.36150  # c3 C1 DMS 23
224 23 4  0.187137   -6.80750    2.03850   10.69950  # h1 H1 DMS 23
225 23 4  0.187137   -5.31350    1.31650   11.40550  # h1 H2 DMS 23
226 23 4  0.187137   -6.30550    2.45350   12.36150  # h1 H3 DMS 23
227 23 3 -0.498374   -4.63650    2.97050    9.08850  # c3 C2 DMS 23
228 23 4  0.187137   -4.01750    2.07550    9.17250  # h1 H4 DMS 23
229 23 4  0.187137   -5.57950    2.75850    8.58350  # h1 H5 DMS 23
230 23 4  0.187137   -4.09450    3.74950    8.55250  # h1 H6 DMS 23
231 24 1  0.359151  -12.54950   -0.29450   -3.61250  # s4 S1 DMS 24
232 24 2 -0.485225  -13.85150    0.16250   -2.98850  # o O1 DMS 24
233 24 3 -0.498374  -11.40150    1.13750   -3.55350  # c3 C1 DMS 24
234 24 4  0.187137  -11.36950    1.52650   -2.53550  # h1 H1 DMS 24
235 24 4  0.187137  -10.41250    0.82850   -3.89550  # h1 H2 DMS 24
236 24 4  0.187137  -11.81050    1.89050   -4.22650  # h1 H3 DMS 24
237 24 3 -0.498374  -11.68350   -1.30950   -2.35350  # c3 C2 DMS 24
238 24 4  0.187137  -10.68850   -1.57450   -2.71650  # h1 H4 DMS 24
239 24 4  0.187137  -11.63150   -0.75050   -1.41850  # h1 H5 DMS 24
240 24 4  0.187137  -12.28150   -2.20950   -2.21650  # h1 H6 DMS 24
241 25 1  0.359151   -1.69750  -22.93650   16.73450  # s4 S1 DMS 25
242 25 2 -0.485225   -2.59550  -23.45850   17.83650  # o O1 DMS 25
243 25 3 -0.498374   -2.08550  -21.15450   16.53250  # c3 C1 DMS 25
244 25 4  0.187137   -2.03350  -20.66550   17.50550  # h1 H1 DMS 25
245 25 4  0.187137   -1.38950  -20.70450   15.82150  # h1 H2 DMS 25
246 25 4  0.187137   -3.10250  -21.09950   16.14350  # h1 H3 DMS 25
247 25 3 -0.498374   -0.03150  -22.70650   17.46850  # c3 C2 DMS 25
248 25 4  0.187137    0.62750  -22.22950   16.74050  # h1 H4 DMS 25
249 25 4  0.187137   -0.12250  -22.11050   18.37650  # h1 H5 DMS 25
250 25 4  0.187137    0.33950  -23.70150   17.71150  # h1 H6 DMS 25
251 26 1  0.359151    9.32350   23.52850   17.92950  # s4 S1 DMS 26
252 26 2 -0.485225    8.97950   22.52850   19.01350  # o O1 DMS 26
253 26 3 -0.498374    9.61150   22.56750   16.39250  # c3 C1 DMS 26
254 26 4  0.187137    8.76250   21.90350   16.22250  # h1 H1 DMS 26
255 26 4  0.187137    9.75950   23.25050   15.55450  # h1 H2 DMS 26
256 26 4  0.187137   10.51550   21.97950   16.55850  # h1 H3 DMS 26
257 26 3 -0.498374    7.74650   24.30350   17.40050  # c3 C2 DMS 26
258 26 4  0.187137    7.92750   24.95550   16.54350  # h1 H4 DMS 26
259 26 4  0.187137    7.02750   23.51950   17.16050  # h1 H5 DMS 26
260 26 4  0.187137    7.39050   24.88950   18.24650  # h1 H6 DMS 26
261 27 1  0.359151   -4.84250  -22.47950   19.24250  # s4 S1 DMS 27
262 27 2 -0.485225   -6.06350  -23.02950   19.95050  # o O1 DMS 27
263 27 3 -0.498374   -4.86850  -20.65950   19.47650  # c3 C1 DMS 27
264 27 4  0.187137   -4.98450  -20.43750   20.53850  # h1 H1 DMS 27
265 27 4  0.187137   -3.95050  -20.22450   19.07550  # h1 H2 DMS 27
266 27 4  0.187137   -5.72950  -20.28650   18.92250  # h1 H3 DMS 27
267 27 3 -0.498374   -3.40350  -22.81150   20.33050  # c3 C2 DMS 27
268 27 4  0.187137   -2.51150  -22.33850   19.91450  # h1 H4 DMS 27
269 27 4  0.187137   -3.62150  -22.44050   21.33350  # h1 H5 DMS 27
270 27 4  0.187137   -3.27450  -23.89250   20.35350  # h1 H6 DMS 27
271 28 1  0.359151   11.57150   16.92550   -9.96150  # s4 S1 DMS 28
272 28 2 -0.485225   10.56750   16.15150  -10.78850  # o O1 DMS 28
273 28 3 -0.498374   13.23050   16.26550  -10.38450  # c3 C1 DMS 28
274 28 4  0.187137   13.35150   16.27250  -11.46950  # h1 H1 DMS 28
275 28 4  0.187137   14.00050   16.86350   -9.89350  # h1 H2 DMS 28
276 28 4  0.187137   13.26250   15.24150  -10.01450  # h1 H3 DMS 28
277 28 3 -0.498374   11.78150   18.55850  -10.77050  # c3 C2 DMS 28
278 28 4  0.187137   12.57750   19.11650  -10.27250  # h1 H4 DMS 28
279 28 4  0.187137   12.00250   18.40650  -11.82750  # h1 H5 DMS 28
280 28 4  0.187137   10.83350   19.08350  -10.65950  # h1 H6 DMS 28
281 29 1  0.359151   -7.90750  -21.54650  -18.66950  # s4 S1 DMS 29
282 29 2 -0.485225   -9.20750  -21.11950  -18.02150  # o O1 DMS 29
283 29 3 -0.498374   -6.72250  -20.16250  -18.44550  # c3 C1 DMS 29
284 29 4  0.187137   -6.69850  -19.88050  -17.39150  # h1 H1 DMS 29
285 29 4  0.187137   -5.73550  -20.46150  -18.80150  # h1 H2 DMS 29
286 29 4  0.187137   -7.09750  -19.33150  -19.04250  # h1 H3 DMS 29
287 29 3 -0.498374   -7.09150  -22.71050  -17.51050  # c3 C2 DMS 29
288 29 4  0.187137   -6.09750  -22.96550  -17.88350  # h1 H4 DMS 29
289 29 4  0.187137   -7.04150  -22.25250  -16.52150  # h1 H5 DMS 29
290 29 4  0.187137   -7.71650  -23.60250  -17.47650  # h1 H6 DMS 29
291 30 1  0.359151    7.21650  -22.12050   23.43150  # s4 S1 DMS 30
292 30 2 -0.485225    6.57450  -22.06550   24.80250  # o O1 DMS 30
293 30 3 -0.498374    7.62850  -23.87950   23.10850  # c3 C1 DMS 30
294 30 4  0.187137    6.74150  -24.49050   23.28050  # h1 H1 DMS 30
295 30 4  0.187137    7.99650  -23.98850   22.08650  # h1 H2 DMS 30
296 30 4  0.187137    8.40950  -24.15150   23.81750  # h1 H3 DMS 30
297 30 3 -0.498374    5.85950  -21.99350   22.20350  # c3 C2 DMS 30
298 30 4  0.187137    6.25950  -22.13650   21.19750  # h1 H4 DMS 30
299 30 4  0.187137    5.09550  -22.73550   22.43850  # h1 H5 DMS 30
300 30 4  0.187137    5.44650  -20.98950   22.30050  # h1 H6 DMS 30
301 31 1  0.359151    7.97450   21.45050   -8.67650  # s4 S1 DMS 31
302 31 2 -0.485225    8.91050   20.60850   -7.83550  # o O1 DMS 31
303 31 3 -0.498374    6.26850   21.07350   -8.11250  # c3 C1 DMS 31
304 31 4  0.187137    6.21950   21.18550   -7.02850  # h1 H1 DMS 31
305 31 4  0.187137    5.56050   21.73450   -8.61550  # h1 H2 DMS 31
306 31 4  0.187137    6.07150   20.03750   -8.38850  # h1 H3 DMS 31
307 31 3 -0.498374    8.04450   23.15750   -8.00650  # c3 C2 DMS 31
308 31 4  0.187137    7.30550   23.78150   -8.51250  # h1 H4 DMS 31
309 31 4  0.187137    7.87150   23.12450   -6.93050  # h1 H5 DMS 31
310 31 4  0.187137    9.04850   23.52850   -8.21150  # h1 H6 DMS 31
311 32 1  0.359151  -17.47250  -18.21650   18.21150  # s4 S1 DMS 32
312 32 2 -0.485225  -16.05950  -18.75850   18.15050  # o O1 DMS 32
313 32 3 -0.498374  -18.55850  -19.47550   17.43350  # c3 C1 DMS 32
314 32 4  0.187137  -18.36550  -20.44550   17.89250  # h1 H1 DMS 32
315 32 4  0.187137  -19.60350  -19.18050   17.54750  # h1 H2 DMS 32
316 32 4  0.187137  -18.29250  -19.50550   16.37650  # h1 H3 DMS 32
317 32 3 -0.498374  -18.06450  -18.46250   19.93050  # c3 C2 DMS 32
318 32 4  0.187137  -19.11750  -18.18550   19.99950  # h1 H4 DMS 32
319 32 4  0.187137  -17.90450  -19.50350   20.21650  # h1 H5 DMS 32
320 32 4  0.187137  -17.46450  -17.80750   20.56050  # h1 H6 DMS 32
321 33 1  0.359151   10.20550   10.03950   17.62150  # s4 S1 DMS 33
322 33 2 -0.485225    9.33050   11.17250   17.12750  # o O1 DMS 33
323 33 3 -0.498374    9.09250    8.62250   17.97150  # c3 C1 DMS 33
324 33 4  0.187137    8.46450    8.43850   17.09850  # h1 H1 DMS 33
325 33 4  0.187137    9.68550    7.74350   18.22950  # h1 H2 DMS 33
326 33 4  0.187137    8.47250    8.91550   18.81850  # h1 H3 DMS 33
327 33 3 -0.498374   11.01650    9.31050   16.14650  # c3 C2 DMS 33
328 33 4  0.187137   11.57550    8.41950   16.43750  # h1 H4 DMS 33
329 33 4  0.187137   10.25550    9.07850   15.40050  # h1 H5 DMS 33
330 33 4  0.187137   11.69750   10.06950   15.76050  # h1 H6 DMS 33
331 34 1  0.359151   20.86850   19.09950    3.53450  # s4 S1 DMS 34
332 34 2 -0.485225   20.25150   18.59450    2.24750  # o O1 DMS 34
333 34 3 -0.498374   22.60650   18.50850    3.55950  # c3 C1 DMS 34
334 34 4  0.187137   23.08950   18.78350    2.62050  # h1 H1 DMS 34
335 34 4  0.187137   23.12750   18.93650    4.41750  # h1 H2 DMS 34
336 34 4  0.187137   22.56450   17.42350    3.65250  # h1 H3 DMS 34
337 34 3 -0.498374   21.25450   20.87550    3.27850  # c3 C2 DMS 34
338 34 4  0.187137   21.80050   21.26150    4.14150  # h1 H4 DMS 34
339 34 4  0.187137   21.83150   20.98550    2.35950  # h1 H5 DMS 34
340 34 4  0.187137   20.29850   21.38950    3.18250  # h1 H6 DMS 34
341 35 1  0.359151   -5.03350   -1.19250    0.56550  # s4 S1 DMS 35
342 35 2 -0.485225   -4.77150    0.25350    0.93150  # o O1 DMS 35
343 35 3 -0.498374   -3.74350   -2.19450    1.40150  # c3 C1 DMS 35
344 35 4  0.187137   -3.72050   -1.93450    2.46050  # h1 H1 DMS 35
345 35 4  0.187137   -3.95050   -3.25650    1.25650  # h1 H2 DMS 35
346 35 4  0.187137   -2.79450   -1.93350    0.93450  # h1 H3 DMS 35
347 35 3 -0.498374   -6.44050   -1.75750    1.59750  # c3 C2 DMS 35
348 35 4  0.187137   -6.60050   -2.82650    1.44850  # h1 H4 DMS 35
349 35 4  0.187137   -6.23050   -1.52650    2.64250  # h1 H5 DMS 35
350 35 4  0.187137   -7.31450   -1.19950    1.26150  # h1 H6 DMS 35
351 36 1  0.359151   13.32350   21.12750  -16.20450  # s4 S1 DMS 36
352 36 2 -0.485225   12.74050   19.73050  -16.15350  # o O1 DMS 36
353 36 3 -0.498374   14.43750   21.18650  -17.66150  # c3 C1 DMS 36
354 36 4  0.187137   13.89650   20.82950  -18.53850  # h1 H1 DMS 36
355 36 4  0.187137   14.80150   22.20550  -17.80550  # h1 H2 DMS 36
356 36 4  0.187137   15.27150   20.52050  -17.44250  # h1 H3 DMS 36
357 36 3 -0.498374   12.02150   22.22350  -16.89050  # c3 C2 DMS 36
358 36 4  0.187137   12.42850   23.22450  -17.04750  # h1 H4 DMS 36
359 36 4  0.187137   11.64850   21.79350  -17.82050  # h1 H5 DMS 36
360 36 4  0.187137   11.22350   22.25750  -16.14950  # h1 H6 DMS 36
361 37 1  0.359151   -8.33850   21.32250    1.23750  # s4 S1 DMS 37
362 37 2 -0.485225   -7.21550   21.45650    0.23050  # o O1 DMS 37
363 37 3 -0.498374   -9.90950   21.34150    0.28850  # c3 C1 DMS 37
364 37 4  0.187137   -9.85150   20.60250   -0.51150  # h1 H1 DMS 37
365 37 4  0.187137  -10.74650   21.14050    0.95850  # h1 H2 DMS 37
366 37 4  0.187137  -10.00350   22.34150   -0.13550  # h1 H3 DMS 37
367 37 3 -0.498374   -8.40950   19.55450    1.72350  # c3 C2 DMS 37
368 37 4  0.187137   -9.27350   19.38450    2.36850  # h1 H4 DMS 37
369 37 4  0.187137   -8.45550   18.93950    0.82350  # h1 H5 DMS 37
370 37 4  0.187137   -7.48950   19.34650    2.26950  # h1 H6 DMS 37
371 38 1  0.359151  -21.25850  -17.61350   19.57950  # s4 S1 DMS 38
372 38 2 -0.485225  -21.52950  -18.91250   18.84850  # o O1 DMS 38
373 38 3 -0.498374  -20.42150  -16.49750   18.38650  # c3 C1 DMS 38
374 38 4  0.187137  -21.00850  -16.45250   17.46750  # h1 H1 DMS 38
375 38 4  0.187137  -20.29950  -15.50850   18.83150  # h1 H2 DMS 38
376 38 4  0.187137  -19.44550  -16.93750   18.18150  # h1 H3 DMS 38
377 38 3 -0.498374  -22.84750  -16.69750   19.64350  # c3 C2 DMS 38
378 38 4  0.187137  -22.68250  -15.70450   20.06650  # h1 H4 DMS 38
379 38 4  0.187137  -23.26550  -16.63950   18.63850  # h1 H5 DMS 38
380 38 4  0.187137  -23.51050  -17.27250   20.28950  # h1 H6 DMS 38
381 39 1  0.359151    1.54150   14.01850   -5.70550  # s4 S1 DMS 39
382 39 2 -0.485225    0.68250   15.07350   -5.04050  # o O1 DMS 39
383 39 3 -0.498374    3.24250   14.22650   -5.04850  # c3 C1 DMS 39
384 39 4  0.187137    3.20450   14.23950   -3.95850  # h1 H1 DMS 39
385 39 4  0.187137    3.88050   13.42050   -5.41650  # h1 H2 DMS 39
386 39 4  0.187137    3.60450   15.18550   -5.41850  # h1 H3 DMS 39
387 39 3 -0.498374    1.18350   12.42950   -4.86150  # c3 C2 DMS 39
388 39 4  0.187137    1.85750   11.65550   -5.23250  # h1 H4 DMS 39
389 39 4  0.187137    1.28850   12.56750   -3.78450  # h1 H5 DMS 39
390 39 4  0.187137    0.15250   12.17550   -5.10550  # h1 H6 DMS 39